<?xml version="1.0" encoding="ISO-8859-1"?>
<!--
 -  
 -  This file is part of the OpenLink Software Virtuoso Open-Source (VOS)
 -  project.
 -  
 -  Copyright (C) 1998-2019 OpenLink Software
 -  
 -  This project is free software; you can redistribute it and/or modify it
 -  under the terms of the GNU General Public License as published by the
 -  Free Software Foundation; only version 2 of the License, dated June 1991.
 -  
 -  This program is distributed in the hope that it will be useful, but
 -  WITHOUT ANY WARRANTY; without even the implied warranty of
 -  MERCHANTABILITY or FITNESS FOR A PARTICULAR PURPOSE. See the GNU
 -  General Public License for more details.
 -  
 -  You should have received a copy of the GNU General Public License along
 -  with this program; if not, write to the Free Software Foundation, Inc.,
 -  51 Franklin St, Fifth Floor, Boston, MA 02110-1301 USA
 -  
 -  
-->
<refentry id="fn_soap_wsdl_import">
  <refmeta>
    <refentrytitle>soap_wsdl_import</refentrytitle>
    <refmiscinfo>soap</refmiscinfo>
  </refmeta>
  <refnamediv>
    <refname>SOAP_WSDL_IMPORT</refname>
    <refpurpose></refpurpose>
  </refnamediv>
  <refsynopsisdiv>
    <funcsynopsis id="fsyn_soap_wsdl_import">
      <funcprototype id="fproto_soap_wsdl_import">
        <funcdef>array DB.DBA.<function>SOAP_WSDL_IMPORT</function></funcdef>
	<paramdef>in <parameter>target_url</parameter> varchar</paramdef>
      </funcprototype>
    </funcsynopsis>
  </refsynopsisdiv>
  <refsect1 id="desc_soap_wsdl_import">
    <title>Description</title>
    <para>The <function>soap_wsdl_import()</function> function is used to 
    import operations and types definitions from an WSDL file on 
    a remote server.  The retrieved file will be parsed and PL (procedure 
    language) wrappers will be generated for each SOAP operation that is 
    described.  The SOAP service will be represented by a PL module which will 
    be the overall container the generated PL wrappers.  
    Once the WSDL file has been imported the PL wrappers are automatically 
    generated and available for use.</para>
  </refsect1>
  <refsect1 id="params_soap_wsdl_import">
    <title>Parameters</title>
    <refsect2><title>target_url</title>
      <para>A URL to a WSDL file.</para>
    </refsect2>
  </refsect1>
  <refsect1 id="ret_soap_wsdl_import"><title>Return Types</title>
    <para>soap_wsdl_import() returns an array that consists of 
    the name of module, the name of PL wrapper, and a vector of parameter 
    name/type pairs.  An example of the result is:  vector ([module name], 
    [wrapper1], vector ([param1], [type1], [param2], [tyep2] ...), 
    [wrapper2] vector (...))</para>
  </refsect1>
<!--  <refsect1 id="errors_soap_wsdl_import">
    <title>Errors</title>
    <table>
      <title>Errors signalled by</title>
      <tgroup cols="4">
       <thead>
         <row>
           <entry>SQLState</entry>
           <entry>Error Code</entry>
           <entry>Error Text</entry>
           <entry>Description</entry></row></thead>
	<tbody>
	  <row>
	    <entry><errorcode></errorcode></entry>
	    <entry><errorcode></errorcode></entry>
	    <entry><errorname></errorname></entry>
	    <entry></entry>
	  </row>
	</tbody>
      </tgroup>
    </table>
  </refsect1>
-->
<refsect1 id="examples_soap_wsdl_import">
    <title>Examples</title>
    <example id="ex_soap_wsdl_import"><title>Importing and using a Web Services description file</title>
      <screen><![CDATA[
 SQL> soap_wsdl_import('http://[host:port]/chemistry.wsdl');

 Done. -- 1286 msec.
 SQL> select xml_tree_doc (Chemistry.getElementBySymbol('Ni'));
 callret
 VARCHAR
 _______________________________________________________________________________

 <getElementBySymbolResponse>
   <return>
     <atomicnumber>28</atomicnumber>
     <symbol>Ni</symbol>
     <name>Nickel</name>
     <mass>58.69</mass>
     <meltingPoint>1726.0</meltingPoint>
     <boilingPoint>3005.0</boilingPoint>
     <found>1751</found>
  </return>
 </getElementBySymbolResponse>

 Note: the namespaces from response are omitted for better reading.
]]>
</screen>
    </example>
  </refsect1>
<refsect1 id="seealso_soap_wsdl_import">
    <title>See Also</title>
    <para><link linkend="fn_soap_wsdl">soap_wsdl()</link></para>
  </refsect1>
</refentry>
